MODEL 1
REMARK VINA RESULT:      -8.4      0.000      0.000
REMARK  3 active torsions:
REMARK  status: ('A' for Active; 'I' for Inactive)
REMARK    1  A    between atoms: S1_1  and  C10_10 
REMARK    2  A    between atoms: C6_6  and  C7_7 
REMARK    3  A    between atoms: C8_8  and  C11_11 
ROOT
HETATM    1  S1          0      26.186 -20.803 -17.314  1.00  0.00     0.171 S 
HETATM    2  O4          0      25.994 -19.410 -16.936  1.00  0.00    -0.223 OA
HETATM    3  O5          0      25.655 -21.287 -18.581  1.00  0.00    -0.223 OA
HETATM    4  C19         0      25.484 -21.819 -16.035  1.00  0.00     0.167 C 
ENDROOT
BRANCH   1   5
HETATM    5  C10         0      27.897 -21.146 -17.251  1.00  0.00     0.058 A 
HETATM    6  C15         0      28.357 -22.278 -16.580  1.00  0.00     0.024 A 
HETATM    7  C12         0      29.724 -22.553 -16.529  1.00  0.00     0.013 A 
HETATM    8  C7          0      30.640 -21.696 -17.149  1.00  0.00    -0.027 A 
HETATM    9  C13         0      30.172 -20.560 -17.820  1.00  0.00     0.013 A 
HETATM   10  C16         0      28.805 -20.286 -17.871  1.00  0.00     0.024 A 
BRANCH   8  11
HETATM   11  C6          0      32.080 -21.987 -17.097  1.00  0.00    -0.007 A 
HETATM   12  C9          0      32.993 -21.454 -18.136  1.00  0.00     0.219 A 
HETATM   13  O2          0      34.272 -21.983 -17.785  1.00  0.00    -0.313 OA
HETATM   14  C14         0      34.162 -22.711 -16.637  1.00  0.00     0.295 A 
HETATM   15  C8          0      32.753 -22.705 -16.190  1.00  0.00     0.059 A 
HETATM   16  O3          0      35.087 -23.267 -16.069  1.00  0.00    -0.259 OA
BRANCH  15  17
HETATM   17  C11         0      32.276 -23.373 -14.979  1.00  0.00    -0.019 A 
HETATM   18  C17         0      31.580 -22.648 -14.012  1.00  0.00     0.012 A 
HETATM   19  C20         0      31.125 -23.283 -12.856  1.00  0.00     0.001 A 
HETATM   20  C22         0      31.367 -24.644 -12.667  1.00  0.00     0.000 A 
HETATM   21  C21         0      32.063 -25.369 -13.635  1.00  0.00     0.001 A 
HETATM   22  C18         0      32.518 -24.733 -14.790  1.00  0.00     0.012 A 
ENDBRANCH  15  17
ENDBRANCH   8  11
ENDBRANCH   1   5
TORSDOF 3
ENDMDL
MODEL 2
REMARK VINA RESULT:      -8.0      2.854      6.499
REMARK  3 active torsions:
REMARK  status: ('A' for Active; 'I' for Inactive)
REMARK    1  A    between atoms: S1_1  and  C10_10 
REMARK    2  A    between atoms: C6_6  and  C7_7 
REMARK    3  A    between atoms: C8_8  and  C11_11 
ROOT
HETATM    1  S1          0      32.866 -25.678 -12.897  1.00  0.00     0.171 S 
HETATM    2  O4          0      32.526 -27.061 -13.195  1.00  0.00    -0.223 OA
HETATM    3  O5          0      34.248 -25.233 -13.005  1.00  0.00    -0.223 OA
HETATM    4  C19         0      32.339 -25.330 -11.234  1.00  0.00     0.167 C 
ENDROOT
BRANCH   1   5
HETATM    5  C10         0      31.863 -24.652 -13.892  1.00  0.00     0.058 A 
HETATM    6  C15         0      30.894 -23.840 -13.303  1.00  0.00     0.024 A 
HETATM    7  C12         0      30.092 -23.020 -14.097  1.00  0.00     0.013 A 
HETATM    8  C7          0      30.255 -23.007 -15.487  1.00  0.00    -0.027 A 
HETATM    9  C13         0      31.229 -23.825 -16.072  1.00  0.00     0.013 A 
HETATM   10  C16         0      32.030 -24.644 -15.277  1.00  0.00     0.024 A 
BRANCH   8  11
HETATM   11  C6          0      29.412 -22.142 -16.325  1.00  0.00    -0.007 A 
HETATM   12  C9          0      27.935 -22.184 -16.202  1.00  0.00     0.219 A 
HETATM   13  O2          0      27.474 -21.264 -17.193  1.00  0.00    -0.313 OA
HETATM   14  C14         0      28.545 -20.689 -17.812  1.00  0.00     0.295 A 
HETATM   15  C8          0      29.791 -21.248 -17.247  1.00  0.00     0.059 A 
HETATM   16  O3          0      28.476 -19.842 -18.686  1.00  0.00    -0.259 OA
BRANCH  15  17
HETATM   17  C11         0      31.133 -20.842 -17.664  1.00  0.00    -0.019 A 
HETATM   18  C17         0      31.723 -19.707 -17.108  1.00  0.00     0.012 A 
HETATM   19  C20         0      33.002 -19.319 -17.506  1.00  0.00     0.001 A 
HETATM   20  C22         0      33.692 -20.065 -18.461  1.00  0.00     0.000 A 
HETATM   21  C21         0      33.102 -21.200 -19.018  1.00  0.00     0.001 A 
HETATM   22  C18         0      31.822 -21.588 -18.620  1.00  0.00     0.012 A 
ENDBRANCH  15  17
ENDBRANCH   8  11
ENDBRANCH   1   5
TORSDOF 3
ENDMDL
MODEL 3
REMARK VINA RESULT:      -8.0      2.853      6.591
REMARK  3 active torsions:
REMARK  status: ('A' for Active; 'I' for Inactive)
REMARK    1  A    between atoms: S1_1  and  C10_10 
REMARK    2  A    between atoms: C6_6  and  C7_7 
REMARK    3  A    between atoms: C8_8  and  C11_11 
ROOT
HETATM    1  S1          0      32.851 -25.672 -12.887  1.00  0.00     0.171 S 
HETATM    2  O4          0      32.497 -27.055 -13.170  1.00  0.00    -0.223 OA
HETATM    3  O5          0      34.237 -25.241 -13.009  1.00  0.00    -0.223 OA
HETATM    4  C19         0      32.340 -25.305 -11.223  1.00  0.00     0.167 C 
ENDROOT
BRANCH   1   5
HETATM    5  C10         0      31.849 -24.647 -13.884  1.00  0.00     0.058 A 
HETATM    6  C15         0      32.020 -24.638 -15.268  1.00  0.00     0.024 A 
HETATM    7  C12         0      31.220 -23.819 -16.065  1.00  0.00     0.013 A 
HETATM    8  C7          0      30.244 -23.003 -15.483  1.00  0.00    -0.027 A 
HETATM    9  C13         0      30.078 -23.016 -14.093  1.00  0.00     0.013 A 
HETATM   10  C16         0      30.878 -23.835 -13.296  1.00  0.00     0.024 A 
BRANCH   8  11
HETATM   11  C6          0      29.399 -22.142 -16.323  1.00  0.00    -0.007 A 
HETATM   12  C9          0      27.923 -22.181 -16.196  1.00  0.00     0.219 A 
HETATM   13  O2          0      27.461 -21.268 -17.192  1.00  0.00    -0.313 OA
HETATM   14  C14         0      28.530 -20.698 -17.818  1.00  0.00     0.295 A 
HETATM   15  C8          0      29.777 -21.255 -17.252  1.00  0.00     0.059 A 
HETATM   16  O3          0      28.460 -19.857 -18.698  1.00  0.00    -0.259 OA
BRANCH  15  17
HETATM   17  C11         0      31.119 -20.854 -17.677  1.00  0.00    -0.019 A 
HETATM   18  C17         0      31.804 -21.609 -18.629  1.00  0.00     0.012 A 
HETATM   19  C20         0      33.083 -21.227 -19.033  1.00  0.00     0.001 A 
HETATM   20  C22         0      33.678 -20.091 -18.485  1.00  0.00     0.000 A 
HETATM   21  C21         0      32.993 -19.336 -17.533  1.00  0.00     0.001 A 
HETATM   22  C18         0      31.713 -19.718 -17.128  1.00  0.00     0.012 A 
ENDBRANCH  15  17
ENDBRANCH   8  11
ENDBRANCH   1   5
TORSDOF 3
ENDMDL
MODEL 4
REMARK VINA RESULT:      -6.8      2.818      5.858
REMARK  3 active torsions:
REMARK  status: ('A' for Active; 'I' for Inactive)
REMARK    1  A    between atoms: S1_1  and  C10_10 
REMARK    2  A    between atoms: C6_6  and  C7_7 
REMARK    3  A    between atoms: C8_8  and  C11_11 
ROOT
HETATM    1  S1          0      35.411 -20.123 -19.676  1.00  0.00     0.171 S 
HETATM    2  O4          0      35.872 -18.879 -19.077  1.00  0.00    -0.223 OA
HETATM    3  O5          0      36.234 -21.320 -19.577  1.00  0.00    -0.223 OA
HETATM    4  C19         0      35.133 -19.827 -21.407  1.00  0.00     0.167 C 
ENDROOT
BRANCH   1   5
HETATM    5  C10         0      33.825 -20.473 -19.035  1.00  0.00     0.058 A 
HETATM    6  C15         0      33.313 -19.711 -17.985  1.00  0.00     0.024 A 
HETATM    7  C12         0      32.046 -19.990 -17.473  1.00  0.00     0.013 A 
HETATM    8  C7          0      31.282 -21.033 -18.009  1.00  0.00    -0.027 A 
HETATM    9  C13         0      31.802 -21.794 -19.062  1.00  0.00     0.013 A 
HETATM   10  C16         0      33.069 -21.514 -19.574  1.00  0.00     0.024 A 
BRANCH   8  11
HETATM   11  C6          0      29.946 -21.325 -17.470  1.00  0.00    -0.007 A 
HETATM   12  C9          0      28.741 -20.701 -18.068  1.00  0.00     0.219 A 
HETATM   13  O2          0      27.663 -21.174 -17.258  1.00  0.00    -0.313 OA
HETATM   14  C14         0      28.147 -22.027 -16.311  1.00  0.00     0.295 A 
HETATM   15  C8          0      29.614 -22.131 -16.454  1.00  0.00     0.059 A 
HETATM   16  O3          0      27.468 -22.615 -15.486  1.00  0.00    -0.259 OA
BRANCH  15  17
HETATM   17  C11         0      30.460 -22.978 -15.612  1.00  0.00    -0.019 A 
HETATM   18  C17         0      31.424 -23.799 -16.196  1.00  0.00     0.012 A 
HETATM   19  C20         0      32.231 -24.607 -15.395  1.00  0.00     0.001 A 
HETATM   20  C22         0      32.073 -24.594 -14.009  1.00  0.00     0.000 A 
HETATM   21  C21         0      31.109 -23.773 -13.425  1.00  0.00     0.001 A 
HETATM   22  C18         0      30.303 -22.965 -14.227  1.00  0.00     0.012 A 
ENDBRANCH  15  17
ENDBRANCH   8  11
ENDBRANCH   1   5
TORSDOF 3
ENDMDL
MODEL 5
REMARK VINA RESULT:      -6.8      2.813      5.830
REMARK  3 active torsions:
REMARK  status: ('A' for Active; 'I' for Inactive)
REMARK    1  A    between atoms: S1_1  and  C10_10 
REMARK    2  A    between atoms: C6_6  and  C7_7 
REMARK    3  A    between atoms: C8_8  and  C11_11 
ROOT
HETATM    1  S1          0      35.402 -20.126 -19.665  1.00  0.00     0.171 S 
HETATM    2  O4          0      35.866 -18.887 -19.059  1.00  0.00    -0.223 OA
HETATM    3  O5          0      36.220 -21.327 -19.571  1.00  0.00    -0.223 OA
HETATM    4  C19         0      35.128 -19.821 -21.395  1.00  0.00     0.167 C 
ENDROOT
BRANCH   1   5
HETATM    5  C10         0      33.813 -20.473 -19.029  1.00  0.00     0.058 A 
HETATM    6  C15         0      33.056 -21.510 -19.571  1.00  0.00     0.024 A 
HETATM    7  C12         0      31.787 -21.788 -19.064  1.00  0.00     0.013 A 
HETATM    8  C7          0      31.267 -21.029 -18.009  1.00  0.00    -0.027 A 
HETATM    9  C13         0      32.032 -19.989 -17.469  1.00  0.00     0.013 A 
HETATM   10  C16         0      33.301 -19.711 -17.978  1.00  0.00     0.024 A 
BRANCH   8  11
HETATM   11  C6          0      29.930 -21.323 -17.472  1.00  0.00    -0.007 A 
HETATM   12  C9          0      28.725 -20.702 -18.071  1.00  0.00     0.219 A 
HETATM   13  O2          0      27.647 -21.176 -17.263  1.00  0.00    -0.313 OA
HETATM   14  C14         0      28.131 -22.028 -16.315  1.00  0.00     0.295 A 
HETATM   15  C8          0      29.599 -22.129 -16.456  1.00  0.00     0.059 A 
HETATM   16  O3          0      27.452 -22.616 -15.490  1.00  0.00    -0.259 OA
BRANCH  15  17
HETATM   17  C11         0      30.445 -22.974 -15.613  1.00  0.00    -0.019 A 
HETATM   18  C17         0      31.412 -23.794 -16.195  1.00  0.00     0.012 A 
HETATM   19  C20         0      32.219 -24.600 -15.393  1.00  0.00     0.001 A 
HETATM   20  C22         0      32.059 -24.587 -14.007  1.00  0.00     0.000 A 
HETATM   21  C21         0      31.093 -23.767 -13.425  1.00  0.00     0.001 A 
HETATM   22  C18         0      30.286 -22.961 -14.227  1.00  0.00     0.012 A 
ENDBRANCH  15  17
ENDBRANCH   8  11
ENDBRANCH   1   5
TORSDOF 3
ENDMDL
MODEL 6
REMARK VINA RESULT:      -6.8      1.645      3.967
REMARK  3 active torsions:
REMARK  status: ('A' for Active; 'I' for Inactive)
REMARK    1  A    between atoms: S1_1  and  C10_10 
REMARK    2  A    between atoms: C6_6  and  C7_7 
REMARK    3  A    between atoms: C8_8  and  C11_11 
ROOT
HETATM    1  S1          0      27.518 -20.391 -17.654  1.00  0.00     0.171 S 
HETATM    2  O4          0      27.372 -19.204 -16.825  1.00  0.00    -0.223 OA
HETATM    3  O5          0      27.391 -20.283 -19.101  1.00  0.00    -0.223 OA
HETATM    4  C19         0      26.316 -21.586 -17.116  1.00  0.00     0.167 C 
ENDROOT
BRANCH   1   5
HETATM    5  C10         0      29.057 -21.124 -17.275  1.00  0.00     0.058 A 
HETATM    6  C15         0      29.115 -22.221 -16.415  1.00  0.00     0.024 A 
HETATM    7  C12         0      30.344 -22.807 -16.113  1.00  0.00     0.013 A 
HETATM    8  C7          0      31.524 -22.299 -16.669  1.00  0.00    -0.027 A 
HETATM    9  C13         0      31.459 -21.199 -17.530  1.00  0.00     0.013 A 
HETATM   10  C16         0      30.230 -20.613 -17.833  1.00  0.00     0.024 A 
BRANCH   8  11
HETATM   11  C6          0      32.819 -22.919 -16.351  1.00  0.00    -0.007 A 
HETATM   12  C9          0      32.913 -23.982 -15.323  1.00  0.00     0.219 A 
HETATM   13  O2          0      34.307 -24.287 -15.260  1.00  0.00    -0.313 OA
HETATM   14  C14         0      34.978 -23.537 -16.179  1.00  0.00     0.295 A 
HETATM   15  C8          0      34.019 -22.662 -16.886  1.00  0.00     0.059 A 
HETATM   16  O3          0      36.179 -23.590 -16.384  1.00  0.00    -0.259 OA
BRANCH  15  17
HETATM   17  C11         0      34.392 -21.735 -17.955  1.00  0.00    -0.019 A 
HETATM   18  C17         0      34.494 -20.370 -17.689  1.00  0.00     0.012 A 
HETATM   19  C20         0      34.848 -19.485 -18.708  1.00  0.00     0.001 A 
HETATM   20  C22         0      35.100 -19.966 -19.993  1.00  0.00     0.000 A 
HETATM   21  C21         0      34.999 -21.331 -20.259  1.00  0.00     0.001 A 
HETATM   22  C18         0      34.644 -22.216 -19.240  1.00  0.00     0.012 A 
ENDBRANCH  15  17
ENDBRANCH   8  11
ENDBRANCH   1   5
TORSDOF 3
ENDMDL
MODEL 7
REMARK VINA RESULT:      -6.4      3.776      6.016
REMARK  3 active torsions:
REMARK  status: ('A' for Active; 'I' for Inactive)
REMARK    1  A    between atoms: S1_1  and  C10_10 
REMARK    2  A    between atoms: C6_6  and  C7_7 
REMARK    3  A    between atoms: C8_8  and  C11_11 
ROOT
HETATM    1  S1          0      32.319 -25.321 -12.816  1.00  0.00     0.171 S 
HETATM    2  O4          0      33.202 -24.997 -11.705  1.00  0.00    -0.223 OA
HETATM    3  O5          0      30.882 -25.127 -12.677  1.00  0.00    -0.223 OA
HETATM    4  C19         0      32.572 -27.031 -13.236  1.00  0.00     0.167 C 
ENDROOT
BRANCH   1   5
HETATM    5  C10         0      32.875 -24.443 -14.219  1.00  0.00     0.058 A 
HETATM    6  C15         0      32.032 -23.527 -14.848  1.00  0.00     0.024 A 
HETATM    7  C12         0      32.475 -22.825 -15.968  1.00  0.00     0.013 A 
HETATM    8  C7          0      33.766 -23.035 -16.467  1.00  0.00    -0.027 A 
HETATM    9  C13         0      34.607 -23.956 -15.832  1.00  0.00     0.013 A 
HETATM   10  C16         0      34.162 -24.658 -14.711  1.00  0.00     0.024 A 
BRANCH   8  11
HETATM   11  C6          0      34.234 -22.293 -17.647  1.00  0.00    -0.007 A 
HETATM   12  C9          0      35.486 -22.689 -18.337  1.00  0.00     0.219 A 
HETATM   13  O2          0      35.634 -21.721 -19.377  1.00  0.00    -0.313 OA
HETATM   14  C14         0      34.571 -20.867 -19.358  1.00  0.00     0.295 A 
HETATM   15  C8          0      33.667 -21.241 -18.250  1.00  0.00     0.059 A 
HETATM   16  O3          0      34.397 -19.948 -20.140  1.00  0.00    -0.259 OA
BRANCH  15  17
HETATM   17  C11         0      32.414 -20.549 -17.947  1.00  0.00    -0.019 A 
HETATM   18  C17         0      32.440 -19.290 -17.348  1.00  0.00     0.012 A 
HETATM   19  C20         0      31.246 -18.629 -17.058  1.00  0.00     0.001 A 
HETATM   20  C22         0      30.025 -19.229 -17.368  1.00  0.00     0.000 A 
HETATM   21  C21         0      29.999 -20.488 -17.967  1.00  0.00     0.001 A 
HETATM   22  C18         0      31.193 -21.148 -18.257  1.00  0.00     0.012 A 
ENDBRANCH  15  17
ENDBRANCH   8  11
ENDBRANCH   1   5
TORSDOF 3
ENDMDL
MODEL 8
REMARK VINA RESULT:      -5.9      4.141      6.681
REMARK  3 active torsions:
REMARK  status: ('A' for Active; 'I' for Inactive)
REMARK    1  A    between atoms: S1_1  and  C10_10 
REMARK    2  A    between atoms: C6_6  and  C7_7 
REMARK    3  A    between atoms: C8_8  and  C11_11 
ROOT
HETATM    1  S1          0      32.952 -25.420 -13.893  1.00  0.00     0.171 S 
HETATM    2  O4          0      32.960 -26.713 -14.562  1.00  0.00    -0.223 OA
HETATM    3  O5          0      33.837 -25.186 -12.760  1.00  0.00    -0.223 OA
HETATM    4  C19         0      31.295 -25.105 -13.330  1.00  0.00     0.167 C 
ENDROOT
BRANCH   1   5
HETATM    5  C10         0      33.241 -24.190 -15.099  1.00  0.00     0.058 A 
HETATM    6  C15         0      34.540 -23.934 -15.537  1.00  0.00     0.024 A 
HETATM    7  C12         0      34.771 -22.952 -16.500  1.00  0.00     0.013 A 
HETATM    8  C7          0      33.704 -22.219 -17.031  1.00  0.00    -0.027 A 
HETATM    9  C13         0      32.403 -22.481 -16.587  1.00  0.00     0.013 A 
HETATM   10  C16         0      32.172 -23.463 -15.624  1.00  0.00     0.024 A 
BRANCH   8  11
HETATM   11  C6          0      33.948 -21.185 -18.048  1.00  0.00    -0.007 A 
HETATM   12  C9          0      33.217 -19.896 -18.001  1.00  0.00     0.219 A 
HETATM   13  O2          0      33.673 -19.193 -19.157  1.00  0.00    -0.313 OA
HETATM   14  C14         0      34.610 -19.942 -19.806  1.00  0.00     0.295 A 
HETATM   15  C8          0      34.792 -21.220 -19.087  1.00  0.00     0.059 A 
HETATM   16  O3          0      35.205 -19.600 -20.814  1.00  0.00    -0.259 OA
BRANCH  15  17
HETATM   17  C11         0      35.738 -22.260 -19.494  1.00  0.00    -0.019 A 
HETATM   18  C17         0      36.837 -21.931 -20.286  1.00  0.00     0.012 A 
HETATM   19  C20         0      37.739 -22.922 -20.675  1.00  0.00     0.001 A 
HETATM   20  C22         0      37.540 -24.242 -20.272  1.00  0.00     0.000 A 
HETATM   21  C21         0      36.441 -24.571 -19.479  1.00  0.00     0.001 A 
HETATM   22  C18         0      35.539 -23.580 -19.090  1.00  0.00     0.012 A 
ENDBRANCH  15  17
ENDBRANCH   8  11
ENDBRANCH   1   5
TORSDOF 3
ENDMDL
MODEL 9
REMARK VINA RESULT:      -5.6      3.838      5.982
REMARK  3 active torsions:
REMARK  status: ('A' for Active; 'I' for Inactive)
REMARK    1  A    between atoms: S1_1  and  C10_10 
REMARK    2  A    between atoms: C6_6  and  C7_7 
REMARK    3  A    between atoms: C8_8  and  C11_11 
ROOT
HETATM    1  S1          0      34.879 -22.108 -18.759  1.00  0.00     0.171 S 
HETATM    2  O4          0      35.554 -20.842 -18.512  1.00  0.00    -0.223 OA
HETATM    3  O5          0      35.652 -23.268 -19.180  1.00  0.00    -0.223 OA
HETATM    4  C19         0      33.638 -21.833 -20.003  1.00  0.00     0.167 C 
ENDROOT
BRANCH   1   5
HETATM    5  C10         0      33.972 -22.522 -17.326  1.00  0.00     0.058 A 
HETATM    6  C15         0      34.552 -23.317 -16.338  1.00  0.00     0.024 A 
HETATM    7  C12         0      33.828 -23.649 -15.193  1.00  0.00     0.013 A 
HETATM    8  C7          0      32.517 -23.186 -15.029  1.00  0.00    -0.027 A 
HETATM    9  C13         0      31.940 -22.388 -16.024  1.00  0.00     0.013 A 
HETATM   10  C16         0      32.665 -22.058 -17.168  1.00  0.00     0.024 A 
BRANCH   8  11
HETATM   11  C6          0      31.755 -23.533 -13.821  1.00  0.00    -0.007 A 
HETATM   12  C9          0      30.603 -22.704 -13.394  1.00  0.00     0.219 A 
HETATM   13  O2          0      30.164 -23.312 -12.178  1.00  0.00    -0.313 OA
HETATM   14  C14         0      30.925 -24.414 -11.920  1.00  0.00     0.295 A 
HETATM   15  C8          0      31.943 -24.560 -12.982  1.00  0.00     0.059 A 
HETATM   16  O3          0      30.778 -25.160 -10.967  1.00  0.00    -0.259 OA
BRANCH  15  17
HETATM   17  C11         0      32.920 -25.648 -13.035  1.00  0.00    -0.019 A 
HETATM   18  C17         0      33.073 -26.391 -14.206  1.00  0.00     0.012 A 
HETATM   19  C20         0      34.004 -27.429 -14.256  1.00  0.00     0.001 A 
HETATM   20  C22         0      34.781 -27.725 -13.136  1.00  0.00     0.000 A 
HETATM   21  C21         0      34.627 -26.982 -11.966  1.00  0.00     0.001 A 
HETATM   22  C18         0      33.696 -25.944 -11.915  1.00  0.00     0.012 A 
ENDBRANCH  15  17
ENDBRANCH   8  11
ENDBRANCH   1   5
TORSDOF 3
ENDMDL
