MODEL 1
REMARK VINA RESULT:      -9.2      0.000      0.000
REMARK  5 active torsions:
REMARK  status: ('A' for Active; 'I' for Inactive)
REMARK    1  A    between atoms: S1_1  and  C17_17 
REMARK    2  A    between atoms: S1_1  and  N9_9 
REMARK    3  A    between atoms: N7_7  and  C11_11 
REMARK    4  A    between atoms: C10_10  and  C12_12 
REMARK    5  A    between atoms: C14_14  and  C25_25 
ROOT
HETATM    1  S1          0      32.789 -25.553 -13.440  1.00  0.00     0.256 S 
HETATM    2  O5          0      32.250 -25.645 -12.091  1.00  0.00    -0.201 OA
HETATM    3  O6          0      33.015 -26.766 -14.214  1.00  0.00    -0.201 OA
ENDROOT
BRANCH   1   4
HETATM    4  C17         0      31.768 -24.484 -14.370  1.00  0.00     0.079 A 
HETATM    5  C21         0      31.915 -24.409 -15.755  1.00  0.00     0.027 A 
HETATM    6  C16         0      31.098 -23.556 -16.498  1.00  0.00     0.033 A 
HETATM    7  C11         0      30.144 -22.786 -15.848  1.00  0.00     0.059 A 
HETATM    8  C15         0      29.990 -22.852 -14.470  1.00  0.00     0.033 A 
HETATM    9  C20         0      30.806 -23.706 -13.727  1.00  0.00     0.027 A 
BRANCH   7  10
HETATM   10  N7          0      29.327 -21.931 -16.591  1.00  0.00    -0.233 N 
HETATM   11  N8          0      27.994 -21.980 -16.424  1.00  0.00    -0.162 NA
HETATM   12  C14         0      27.548 -21.050 -17.272  1.00  0.00     0.163 A 
HETATM   13  C13         0      28.588 -20.413 -17.975  1.00  0.00     0.070 A 
HETATM   14  C10         0      29.737 -21.008 -17.510  1.00  0.00     0.071 A 
BRANCH  12  15
HETATM   15  C25         0      26.103 -20.795 -17.383  1.00  0.00     0.436 C 
HETATM   16  F2          0      25.787 -19.472 -17.288  1.00  0.00    -0.165 F 
HETATM   17  F3          0      25.571 -21.217 -18.566  1.00  0.00    -0.165 F 
HETATM   18  F4          0      25.396 -21.426 -16.403  1.00  0.00    -0.165 F 
ENDBRANCH  12  15
BRANCH  14  19
HETATM   19  C12         0      31.112 -20.762 -17.868  1.00  0.00    -0.007 A 
HETATM   20  C18         0      31.736 -21.561 -18.827  1.00  0.00     0.014 A 
HETATM   21  C23         0      33.066 -21.324 -19.174  1.00  0.00     0.007 A 
HETATM   22  C22         0      33.771 -20.288 -18.563  1.00  0.00    -0.062 A 
HETATM   23  C24         0      33.148 -19.489 -17.604  1.00  0.00     0.007 A 
HETATM   24  C26         0      35.194 -20.033 -18.932  1.00  0.00     0.048 C 
HETATM   25  C19         0      31.818 -19.726 -17.258  1.00  0.00     0.014 A 
ENDBRANCH  14  19
ENDBRANCH   7  10
ENDBRANCH   1   4
BRANCH   1  26
HETATM   26  N9          0      34.242 -24.654 -13.393  1.00  0.00    -0.324 N 
HETATM   27  H40         0      34.174 -23.634 -13.487  1.00  0.00     0.169 HD
HETATM   28  H39         0      35.068 -25.060 -13.849  1.00  0.00     0.169 HD
ENDBRANCH   1  26
TORSDOF 5
ENDMDL
MODEL 2
REMARK VINA RESULT:      -8.9      3.489      5.235
REMARK  5 active torsions:
REMARK  status: ('A' for Active; 'I' for Inactive)
REMARK    1  A    between atoms: S1_1  and  C17_17 
REMARK    2  A    between atoms: S1_1  and  N9_9 
REMARK    3  A    between atoms: N7_7  and  C11_11 
REMARK    4  A    between atoms: C10_10  and  C12_12 
REMARK    5  A    between atoms: C14_14  and  C25_25 
ROOT
HETATM    1  S1          0      34.983 -19.896 -19.305  1.00  0.00     0.256 S 
HETATM    2  O5          0      34.820 -19.333 -20.638  1.00  0.00    -0.201 OA
HETATM    3  O6          0      35.688 -19.139 -18.280  1.00  0.00    -0.201 OA
ENDROOT
BRANCH   1   4
HETATM    4  C17         0      33.404 -20.322 -18.690  1.00  0.00     0.079 A 
HETATM    5  C21         0      32.840 -19.587 -17.648  1.00  0.00     0.027 A 
HETATM    6  C16         0      31.579 -19.927 -17.158  1.00  0.00     0.033 A 
HETATM    7  C11         0      30.896 -20.999 -17.714  1.00  0.00     0.059 A 
HETATM    8  C15         0      31.448 -21.738 -18.752  1.00  0.00     0.033 A 
HETATM    9  C20         0      32.709 -21.398 -19.242  1.00  0.00     0.027 A 
BRANCH   7  10
HETATM   10  N7          0      29.633 -21.341 -17.224  1.00  0.00    -0.233 N 
HETATM   11  N8          0      28.542 -20.754 -17.743  1.00  0.00    -0.162 NA
HETATM   12  C14         0      27.543 -21.307 -17.051  1.00  0.00     0.163 A 
HETATM   13  C13         0      27.993 -22.239 -16.097  1.00  0.00     0.070 A 
HETATM   14  C10         0      29.361 -22.240 -16.233  1.00  0.00     0.071 A 
BRANCH  12  15
HETATM   15  C25         0      26.152 -20.915 -17.335  1.00  0.00     0.436 C 
HETATM   16  F2          0      25.963 -19.564 -17.306  1.00  0.00    -0.165 F 
HETATM   17  F3          0      25.717 -21.323 -18.562  1.00  0.00    -0.165 F 
HETATM   18  F4          0      25.279 -21.439 -16.430  1.00  0.00    -0.165 F 
ENDBRANCH  12  15
BRANCH  14  19
HETATM   19  C12         0      30.357 -22.999 -15.518  1.00  0.00    -0.007 A 
HETATM   20  C18         0      30.404 -22.950 -14.125  1.00  0.00     0.014 A 
HETATM   21  C23         0      31.368 -23.685 -13.433  1.00  0.00     0.007 A 
HETATM   22  C22         0      32.284 -24.468 -14.135  1.00  0.00    -0.062 A 
HETATM   23  C24         0      32.237 -24.517 -15.528  1.00  0.00     0.007 A 
HETATM   24  C26         0      33.315 -25.253 -13.397  1.00  0.00     0.048 C 
HETATM   25  C19         0      31.274 -23.783 -16.220  1.00  0.00     0.014 A 
ENDBRANCH  14  19
ENDBRANCH   7  10
ENDBRANCH   1   4
BRANCH   1  26
HETATM   26  N9          0      35.705 -21.439 -19.442  1.00  0.00    -0.324 N 
HETATM   27  H40         0      35.454 -22.011 -20.257  1.00  0.00     0.169 HD
HETATM   28  H39         0      35.841 -21.980 -18.580  1.00  0.00     0.169 HD
ENDBRANCH   1  26
TORSDOF 5
ENDMDL
MODEL 3
REMARK VINA RESULT:      -8.4      4.824      7.008
REMARK  5 active torsions:
REMARK  status: ('A' for Active; 'I' for Inactive)
REMARK    1  A    between atoms: S1_1  and  C17_17 
REMARK    2  A    between atoms: S1_1  and  N9_9 
REMARK    3  A    between atoms: N7_7  and  C11_11 
REMARK    4  A    between atoms: C10_10  and  C12_12 
REMARK    5  A    between atoms: C14_14  and  C25_25 
ROOT
HETATM    1  S1          0      26.000 -21.001 -17.037  1.00  0.00     0.256 S 
HETATM    2  O5          0      25.494 -21.972 -16.077  1.00  0.00    -0.201 OA
HETATM    3  O6          0      25.720 -19.585 -16.851  1.00  0.00    -0.201 OA
ENDROOT
BRANCH   1   4
HETATM    4  C17         0      27.729 -21.210 -17.174  1.00  0.00     0.079 A 
HETATM    5  C21         0      28.339 -22.340 -16.630  1.00  0.00     0.027 A 
HETATM    6  C16         0      29.720 -22.508 -16.740  1.00  0.00     0.033 A 
HETATM    7  C11         0      30.476 -21.543 -17.391  1.00  0.00     0.059 A 
HETATM    8  C15         0      29.879 -20.414 -17.935  1.00  0.00     0.033 A 
HETATM    9  C20         0      28.498 -20.247 -17.826  1.00  0.00     0.027 A 
BRANCH   7  10
HETATM   10  N7          0      31.859 -21.710 -17.500  1.00  0.00    -0.233 N 
HETATM   11  N8          0      32.499 -21.226 -18.577  1.00  0.00    -0.162 NA
HETATM   12  C14         0      33.771 -21.560 -18.349  1.00  0.00     0.163 A 
HETATM   13  C13         0      33.942 -22.252 -17.135  1.00  0.00     0.070 A 
HETATM   14  C10         0      32.677 -22.335 -16.603  1.00  0.00     0.071 A 
BRANCH  12  15
HETATM   15  C25         0      34.810 -21.195 -19.326  1.00  0.00     0.436 C 
HETATM   16  F2          0      35.917 -21.989 -19.248  1.00  0.00    -0.165 F 
HETATM   17  F3          0      34.386 -21.278 -20.619  1.00  0.00    -0.165 F 
HETATM   18  F4          0      35.248 -19.916 -19.151  1.00  0.00    -0.165 F 
ENDBRANCH  12  15
BRANCH  14  19
HETATM   19  C12         0      32.233 -22.937 -15.370  1.00  0.00    -0.007 A 
HETATM   20  C18         0      31.562 -22.166 -14.420  1.00  0.00     0.014 A 
HETATM   21  C23         0      31.133 -22.748 -13.227  1.00  0.00     0.007 A 
HETATM   22  C22         0      31.375 -24.100 -12.984  1.00  0.00    -0.062 A 
HETATM   23  C24         0      32.047 -24.870 -13.933  1.00  0.00     0.007 A 
HETATM   24  C26         0      30.918 -24.723 -11.708  1.00  0.00     0.048 C 
HETATM   25  C19         0      32.476 -24.289 -15.126  1.00  0.00     0.014 A 
ENDBRANCH  14  19
ENDBRANCH   7  10
ENDBRANCH   1   4
BRANCH   1  26
HETATM   26  N9          0      25.493 -21.459 -18.604  1.00  0.00    -0.324 N 
HETATM   27  H40         0      24.671 -20.985 -18.996  1.00  0.00     0.169 HD
HETATM   28  H39         0      25.559 -22.453 -18.854  1.00  0.00     0.169 HD
ENDBRANCH   1  26
TORSDOF 5
ENDMDL
MODEL 4
REMARK VINA RESULT:      -7.2      3.629      5.375
REMARK  5 active torsions:
REMARK  status: ('A' for Active; 'I' for Inactive)
REMARK    1  A    between atoms: S1_1  and  C17_17 
REMARK    2  A    between atoms: S1_1  and  N9_9 
REMARK    3  A    between atoms: N7_7  and  C11_11 
REMARK    4  A    between atoms: C10_10  and  C12_12 
REMARK    5  A    between atoms: C14_14  and  C25_25 
ROOT
HETATM    1  S1          0      32.198 -25.547 -12.023  1.00  0.00     0.256 S 
HETATM    2  O5          0      31.163 -24.983 -11.168  1.00  0.00    -0.201 OA
HETATM    3  O6          0      32.122 -26.943 -12.429  1.00  0.00    -0.201 OA
ENDROOT
BRANCH   1   4
HETATM    4  C17         0      32.325 -24.559 -13.458  1.00  0.00     0.079 A 
HETATM    5  C21         0      31.770 -23.280 -13.475  1.00  0.00     0.027 A 
HETATM    6  C16         0      31.872 -22.491 -14.622  1.00  0.00     0.033 A 
HETATM    7  C11         0      32.527 -22.989 -15.738  1.00  0.00     0.059 A 
HETATM    8  C15         0      33.083 -24.262 -15.733  1.00  0.00     0.033 A 
HETATM    9  C20         0      32.981 -25.051 -14.586  1.00  0.00     0.027 A 
BRANCH   7  10
HETATM   10  N7          0      32.629 -22.200 -16.886  1.00  0.00    -0.233 N 
HETATM   11  N8          0      33.841 -21.946 -17.408  1.00  0.00    -0.162 NA
HETATM   12  C14         0      33.561 -21.183 -18.467  1.00  0.00     0.163 A 
HETATM   13  C13         0      32.181 -20.952 -18.621  1.00  0.00     0.070 A 
HETATM   14  C10         0      31.598 -21.627 -17.575  1.00  0.00     0.071 A 
BRANCH  12  15
HETATM   15  C25         0      34.654 -20.689 -19.322  1.00  0.00     0.436 C 
HETATM   16  F2          0      34.383 -20.810 -20.654  1.00  0.00    -0.165 F 
HETATM   17  F3          0      34.940 -19.371 -19.121  1.00  0.00    -0.165 F 
HETATM   18  F4          0      35.816 -21.368 -19.108  1.00  0.00    -0.165 F 
ENDBRANCH  12  15
BRANCH  14  19
HETATM   19  C12         0      30.206 -21.749 -17.218  1.00  0.00    -0.007 A 
HETATM   20  C18         0      29.786 -22.797 -16.399  1.00  0.00     0.014 A 
HETATM   21  C23         0      28.439 -22.916 -16.054  1.00  0.00     0.007 A 
HETATM   22  C22         0      27.514 -21.986 -16.528  1.00  0.00    -0.062 A 
HETATM   23  C24         0      27.934 -20.938 -17.347  1.00  0.00     0.007 A 
HETATM   24  C26         0      26.074 -22.111 -16.160  1.00  0.00     0.048 C 
HETATM   25  C19         0      29.280 -20.819 -17.692  1.00  0.00     0.014 A 
ENDBRANCH  14  19
ENDBRANCH   7  10
ENDBRANCH   1   4
BRANCH   1  26
HETATM   26  N9          0      33.722 -25.268 -11.301  1.00  0.00    -0.324 N 
HETATM   27  H40         0      34.502 -25.016 -11.919  1.00  0.00     0.169 HD
HETATM   28  H39         0      33.992 -25.867 -10.512  1.00  0.00     0.169 HD
ENDBRANCH   1  26
TORSDOF 5
ENDMDL
