MODEL 1
REMARK VINA RESULT:      -7.3      0.000      0.000
REMARK  5 active torsions:
REMARK  status: ('A' for Active; 'I' for Inactive)
REMARK    1  A    between atoms: O1_1  and  C15_15 
REMARK    2  A    between atoms: C3_3  and  C4_4 
REMARK    3  A    between atoms: C4_4  and  C5_5 
REMARK    4  A    between atoms: C6_6  and  C7_7 
REMARK    5  A    between atoms: C7_7  and  C15_15 
ROOT
HETATM    1  O1          0      32.182 -19.354 -17.320  1.00  0.00    -0.776 OA
HETATM    2  H33         0      31.226 -19.157 -17.422  1.00  0.00     0.167 HD
ENDROOT
BRANCH   1   3
HETATM    3  C15         0      32.491 -20.602 -17.763  1.00  0.00     0.148 C 
HETATM    4  O2          0      33.612 -20.903 -18.150  1.00  0.00    -0.649 OA
BRANCH   3   5
HETATM    5  C7          0      31.304 -21.569 -17.712  1.00  0.00     0.112 C 
HETATM    6  C14         0      30.013 -20.759 -17.951  1.00  0.00     0.026 C 
BRANCH   5   7
HETATM    7  C6          0      31.280 -22.390 -16.468  1.00  0.00    -0.044 A 
HETATM    8  C12         0      32.471 -22.889 -15.937  1.00  0.00     0.008 A 
HETATM    9  C10         0      32.449 -23.658 -14.774  1.00  0.00     0.007 A 
HETATM   10  C5          0      31.236 -23.918 -14.155  1.00  0.00    -0.058 A 
HETATM   11  C11         0      30.045 -23.430 -14.670  1.00  0.00     0.007 A 
HETATM   12  C13         0      30.068 -22.660 -15.833  1.00  0.00     0.008 A 
BRANCH  10  13
HETATM   13  C4          0      31.211 -24.749 -12.895  1.00  0.00     0.042 C 
BRANCH  13  14
HETATM   14  C3          0      32.581 -25.344 -12.515  1.00  0.00    -0.019 C 
HETATM   15  C8          0      32.747 -25.479 -11.000  1.00  0.00     0.010 C 
HETATM   16  C9          0      32.754 -26.713 -13.177  1.00  0.00     0.010 C 
ENDBRANCH  13  14
ENDBRANCH  10  13
ENDBRANCH   5   7
ENDBRANCH   3   5
ENDBRANCH   1   3
TORSDOF 5
ENDMDL
MODEL 2
REMARK VINA RESULT:      -7.2      3.310      6.247
REMARK  5 active torsions:
REMARK  status: ('A' for Active; 'I' for Inactive)
REMARK    1  A    between atoms: O1_1  and  C15_15 
REMARK    2  A    between atoms: C3_3  and  C4_4 
REMARK    3  A    between atoms: C4_4  and  C5_5 
REMARK    4  A    between atoms: C6_6  and  C7_7 
REMARK    5  A    between atoms: C7_7  and  C15_15 
ROOT
HETATM    1  O1          0      34.674 -27.487 -12.762  1.00  0.00    -0.776 OA
HETATM    2  H33         0      35.399 -26.937 -13.130  1.00  0.00     0.167 HD
ENDROOT
BRANCH   1   3
HETATM    3  C15         0      33.452 -26.943 -13.006  1.00  0.00     0.148 C 
HETATM    4  O2          0      32.551 -27.569 -13.548  1.00  0.00    -0.649 OA
BRANCH   3   5
HETATM    5  C7          0      33.332 -25.493 -12.526  1.00  0.00     0.112 C 
HETATM    6  C14         0      32.527 -25.487 -11.210  1.00  0.00     0.026 C 
BRANCH   5   7
HETATM    7  C6          0      32.787 -24.581 -13.572  1.00  0.00    -0.044 A 
HETATM    8  C12         0      33.442 -24.452 -14.797  1.00  0.00     0.008 A 
HETATM    9  C10         0      32.933 -23.598 -15.775  1.00  0.00     0.007 A 
HETATM   10  C5          0      31.774 -22.883 -15.515  1.00  0.00    -0.058 A 
HETATM   11  C11         0      31.111 -23.000 -14.303  1.00  0.00     0.007 A 
HETATM   12  C13         0      31.621 -23.855 -13.325  1.00  0.00     0.008 A 
BRANCH  10  13
HETATM   13  C4          0      31.222 -21.959 -16.573  1.00  0.00     0.042 C 
BRANCH  13  14
HETATM   14  C3          0      32.305 -21.271 -17.426  1.00  0.00    -0.019 C 
HETATM   15  C8          0      32.190 -21.640 -18.907  1.00  0.00     0.010 C 
HETATM   16  C9          0      32.205 -19.752 -17.264  1.00  0.00     0.010 C 
ENDBRANCH  13  14
ENDBRANCH  10  13
ENDBRANCH   5   7
ENDBRANCH   3   5
ENDBRANCH   1   3
TORSDOF 5
ENDMDL
MODEL 3
REMARK VINA RESULT:      -7.2      0.102      1.251
REMARK  5 active torsions:
REMARK  status: ('A' for Active; 'I' for Inactive)
REMARK    1  A    between atoms: O1_1  and  C15_15 
REMARK    2  A    between atoms: C3_3  and  C4_4 
REMARK    3  A    between atoms: C4_4  and  C5_5 
REMARK    4  A    between atoms: C6_6  and  C7_7 
REMARK    5  A    between atoms: C7_7  and  C15_15 
ROOT
HETATM    1  O1          0      32.189 -19.343 -17.096  1.00  0.00    -0.776 OA
HETATM    2  H33         0      32.128 -18.610 -17.746  1.00  0.00     0.167 HD
ENDROOT
BRANCH   1   3
HETATM    3  C15         0      32.528 -20.518 -17.691  1.00  0.00     0.148 C 
HETATM    4  O2          0      33.642 -20.723 -18.155  1.00  0.00    -0.649 OA
BRANCH   3   5
HETATM    5  C7          0      31.383 -21.537 -17.705  1.00  0.00     0.112 C 
HETATM    6  C14         0      30.069 -20.780 -17.988  1.00  0.00     0.026 C 
BRANCH   5   7
HETATM    7  C6          0      31.343 -22.378 -16.474  1.00  0.00    -0.044 A 
HETATM    8  C12         0      30.132 -22.597 -15.817  1.00  0.00     0.008 A 
HETATM    9  C10         0      30.095 -23.383 -14.665  1.00  0.00     0.007 A 
HETATM   10  C5          0      31.270 -23.939 -14.184  1.00  0.00    -0.058 A 
HETATM   11  C11         0      32.481 -23.730 -14.826  1.00  0.00     0.007 A 
HETATM   12  C13         0      32.518 -22.944 -15.978  1.00  0.00     0.008 A 
BRANCH  10  13
HETATM   13  C4          0      31.230 -24.790 -12.938  1.00  0.00     0.042 C 
BRANCH  13  14
HETATM   14  C3          0      32.596 -25.385 -12.546  1.00  0.00    -0.019 C 
HETATM   15  C8          0      32.753 -25.509 -11.029  1.00  0.00     0.010 C 
HETATM   16  C9          0      32.770 -26.759 -13.198  1.00  0.00     0.010 C 
ENDBRANCH  13  14
ENDBRANCH  10  13
ENDBRANCH   5   7
ENDBRANCH   3   5
ENDBRANCH   1   3
TORSDOF 5
ENDMDL
MODEL 4
REMARK VINA RESULT:      -7.0      3.116      6.097
REMARK  5 active torsions:
REMARK  status: ('A' for Active; 'I' for Inactive)
REMARK    1  A    between atoms: O1_1  and  C15_15 
REMARK    2  A    between atoms: C3_3  and  C4_4 
REMARK    3  A    between atoms: C4_4  and  C5_5 
REMARK    4  A    between atoms: C6_6  and  C7_7 
REMARK    5  A    between atoms: C7_7  and  C15_15 
ROOT
HETATM    1  O1          0      33.028 -25.025 -10.667  1.00  0.00    -0.776 OA
HETATM    2  H33         0      33.396 -25.919 -10.833  1.00  0.00     0.167 HD
ENDROOT
BRANCH   1   3
HETATM    3  C15         0      31.932 -24.777 -11.433  1.00  0.00     0.148 C 
HETATM    4  O2          0      31.017 -24.056 -11.059  1.00  0.00    -0.649 OA
BRANCH   3   5
HETATM    5  C7          0      31.979 -25.481 -12.794  1.00  0.00     0.112 C 
HETATM    6  C14         0      33.269 -26.325 -12.855  1.00  0.00     0.026 C 
BRANCH   5   7
HETATM    7  C6          0      31.819 -24.538 -13.938  1.00  0.00    -0.044 A 
HETATM    8  C12         0      32.887 -24.304 -14.805  1.00  0.00     0.008 A 
HETATM    9  C10         0      32.738 -23.422 -15.875  1.00  0.00     0.007 A 
HETATM   10  C5          0      31.522 -22.783 -16.063  1.00  0.00    -0.058 A 
HETATM   11  C11         0      30.452 -23.005 -15.210  1.00  0.00     0.007 A 
HETATM   12  C13         0      30.602 -23.888 -14.141  1.00  0.00     0.008 A 
BRANCH  10  13
HETATM   13  C4          0      31.360 -21.829 -17.221  1.00  0.00     0.042 C 
BRANCH  13  14
HETATM   14  C3          0      32.619 -20.994 -17.521  1.00  0.00    -0.019 C 
HETATM   15  C8          0      33.169 -21.267 -18.922  1.00  0.00     0.010 C 
HETATM   16  C9          0      32.301 -19.503 -17.374  1.00  0.00     0.010 C 
ENDBRANCH  13  14
ENDBRANCH  10  13
ENDBRANCH   5   7
ENDBRANCH   3   5
ENDBRANCH   1   3
TORSDOF 5
ENDMDL
MODEL 5
REMARK VINA RESULT:      -6.5      3.108      6.290
REMARK  5 active torsions:
REMARK  status: ('A' for Active; 'I' for Inactive)
REMARK    1  A    between atoms: O1_1  and  C15_15 
REMARK    2  A    between atoms: C3_3  and  C4_4 
REMARK    3  A    between atoms: C4_4  and  C5_5 
REMARK    4  A    between atoms: C6_6  and  C7_7 
REMARK    5  A    between atoms: C7_7  and  C15_15 
ROOT
HETATM    1  O1          0      33.676 -25.657 -11.789  1.00  0.00    -0.776 OA
HETATM    2  H33         0      34.395 -25.863 -12.425  1.00  0.00     0.167 HD
ENDROOT
BRANCH   1   3
HETATM    3  C15         0      32.590 -25.124 -12.411  1.00  0.00     0.148 C 
HETATM    4  O2          0      31.840 -24.331 -11.857  1.00  0.00    -0.649 OA
BRANCH   3   5
HETATM    5  C7          0      32.424 -25.609 -13.854  1.00  0.00     0.112 C 
HETATM    6  C14         0      33.444 -26.740 -14.102  1.00  0.00     0.026 C 
BRANCH   5   7
HETATM    7  C6          0      32.498 -24.501 -14.849  1.00  0.00    -0.044 A 
HETATM    8  C12         0      31.334 -23.840 -15.246  1.00  0.00     0.008 A 
HETATM    9  C10         0      31.402 -22.804 -16.177  1.00  0.00     0.007 A 
HETATM   10  C5          0      32.634 -22.441 -16.700  1.00  0.00    -0.058 A 
HETATM   11  C11         0      33.799 -23.088 -16.316  1.00  0.00     0.007 A 
HETATM   12  C13         0      33.729 -24.124 -15.384  1.00  0.00     0.008 A 
BRANCH  10  13
HETATM   13  C4          0      32.708 -21.320 -17.707  1.00  0.00     0.042 C 
BRANCH  13  14
HETATM   14  C3          0      34.089 -21.172 -18.374  1.00  0.00    -0.019 C 
HETATM   15  C8          0      34.068 -21.607 -19.841  1.00  0.00     0.010 C 
HETATM   16  C9          0      34.561 -19.719 -18.274  1.00  0.00     0.010 C 
ENDBRANCH  13  14
ENDBRANCH  10  13
ENDBRANCH   5   7
ENDBRANCH   3   5
ENDBRANCH   1   3
TORSDOF 5
ENDMDL
MODEL 6
REMARK VINA RESULT:      -6.5      1.552      2.200
REMARK  5 active torsions:
REMARK  status: ('A' for Active; 'I' for Inactive)
REMARK    1  A    between atoms: O1_1  and  C15_15 
REMARK    2  A    between atoms: C3_3  and  C4_4 
REMARK    3  A    between atoms: C4_4  and  C5_5 
REMARK    4  A    between atoms: C6_6  and  C7_7 
REMARK    5  A    between atoms: C7_7  and  C15_15 
ROOT
HETATM    1  O1          0      32.756 -19.853 -18.489  1.00  0.00    -0.776 OA
HETATM    2  H33         0      33.544 -19.268 -18.478  1.00  0.00     0.167 HD
ENDROOT
BRANCH   1   3
HETATM    3  C15         0      33.094 -21.151 -18.717  1.00  0.00     0.148 C 
HETATM    4  O2          0      32.579 -21.817 -19.605  1.00  0.00    -0.649 OA
BRANCH   3   5
HETATM    5  C7          0      34.176 -21.667 -17.763  1.00  0.00     0.112 C 
HETATM    6  C14         0      35.287 -22.326 -18.607  1.00  0.00     0.026 C 
BRANCH   5   7
HETATM    7  C6          0      33.629 -22.547 -16.691  1.00  0.00    -0.044 A 
HETATM    8  C12         0      34.442 -23.515 -16.099  1.00  0.00     0.008 A 
HETATM    9  C10         0      33.930 -24.339 -15.097  1.00  0.00     0.007 A 
HETATM   10  C5          0      32.610 -24.185 -14.700  1.00  0.00    -0.058 A 
HETATM   11  C11         0      31.790 -23.229 -15.278  1.00  0.00     0.007 A 
HETATM   12  C13         0      32.303 -22.405 -16.280  1.00  0.00     0.008 A 
BRANCH  10  13
HETATM   13  C4          0      32.057 -25.077 -13.614  1.00  0.00     0.042 C 
BRANCH  13  14
HETATM   14  C3          0      33.132 -25.660 -12.679  1.00  0.00    -0.019 C 
HETATM   15  C8          0      32.703 -25.611 -11.210  1.00  0.00     0.010 C 
HETATM   16  C9          0      33.439 -27.106 -13.078  1.00  0.00     0.010 C 
ENDBRANCH  13  14
ENDBRANCH  10  13
ENDBRANCH   5   7
ENDBRANCH   3   5
ENDBRANCH   1   3
TORSDOF 5
ENDMDL
MODEL 7
REMARK VINA RESULT:      -6.4      3.069      6.235
REMARK  5 active torsions:
REMARK  status: ('A' for Active; 'I' for Inactive)
REMARK    1  A    between atoms: O1_1  and  C15_15 
REMARK    2  A    between atoms: C3_3  and  C4_4 
REMARK    3  A    between atoms: C4_4  and  C5_5 
REMARK    4  A    between atoms: C6_6  and  C7_7 
REMARK    5  A    between atoms: C7_7  and  C15_15 
ROOT
HETATM    1  O1          0      32.229 -24.473 -11.678  1.00  0.00    -0.776 OA
HETATM    2  H33         0      33.059 -24.982 -11.808  1.00  0.00     0.167 HD
ENDROOT
BRANCH   1   3
HETATM    3  C15         0      31.784 -23.926 -12.841  1.00  0.00     0.148 C 
HETATM    4  O2          0      31.218 -22.842 -12.882  1.00  0.00    -0.649 OA
BRANCH   3   5
HETATM    5  C7          0      32.077 -24.797 -14.066  1.00  0.00     0.112 C 
HETATM    6  C14         0      32.726 -26.109 -13.580  1.00  0.00     0.026 C 
BRANCH   5   7
HETATM    7  C6          0      32.868 -24.082 -15.108  1.00  0.00    -0.044 A 
HETATM    8  C12         0      32.235 -23.197 -15.982  1.00  0.00     0.008 A 
HETATM    9  C10         0      32.975 -22.529 -16.957  1.00  0.00     0.007 A 
HETATM   10  C5          0      34.340 -22.755 -17.047  1.00  0.00    -0.058 A 
HETATM   11  C11         0      34.983 -23.631 -16.187  1.00  0.00     0.007 A 
HETATM   12  C13         0      34.242 -24.299 -15.212  1.00  0.00     0.008 A 
BRANCH  10  13
HETATM   13  C4          0      35.141 -22.031 -18.102  1.00  0.00     0.042 C 
BRANCH  13  14
HETATM   14  C3          0      34.339 -20.962 -18.868  1.00  0.00    -0.019 C 
HETATM   15  C8          0      34.557 -19.560 -18.294  1.00  0.00     0.010 C 
HETATM   16  C9          0      34.732 -20.980 -20.348  1.00  0.00     0.010 C 
ENDBRANCH  13  14
ENDBRANCH  10  13
ENDBRANCH   5   7
ENDBRANCH   3   5
ENDBRANCH   1   3
TORSDOF 5
ENDMDL
MODEL 8
REMARK VINA RESULT:      -6.2      3.098      5.990
REMARK  5 active torsions:
REMARK  status: ('A' for Active; 'I' for Inactive)
REMARK    1  A    between atoms: O1_1  and  C15_15 
REMARK    2  A    between atoms: C3_3  and  C4_4 
REMARK    3  A    between atoms: C4_4  and  C5_5 
REMARK    4  A    between atoms: C6_6  and  C7_7 
REMARK    5  A    between atoms: C7_7  and  C15_15 
ROOT
HETATM    1  O1          0      31.628 -22.816 -13.028  1.00  0.00    -0.776 OA
HETATM    2  H33         0      31.824 -22.713 -12.072  1.00  0.00     0.167 HD
ENDROOT
BRANCH   1   3
HETATM    3  C15         0      31.965 -24.053 -13.482  1.00  0.00     0.148 C 
HETATM    4  O2          0      32.198 -24.989 -12.729  1.00  0.00    -0.649 OA
BRANCH   3   5
HETATM    5  C7          0      32.009 -24.141 -15.011  1.00  0.00     0.112 C 
HETATM    6  C14         0      33.455 -23.857 -15.468  1.00  0.00     0.026 C 
BRANCH   5   7
HETATM    7  C6          0      30.987 -23.277 -15.669  1.00  0.00    -0.044 A 
HETATM    8  C12         0      29.650 -23.353 -15.275  1.00  0.00     0.008 A 
HETATM    9  C10         0      28.694 -22.546 -15.891  1.00  0.00     0.007 A 
HETATM   10  C5          0      29.086 -21.672 -16.893  1.00  0.00    -0.058 A 
HETATM   11  C11         0      30.410 -21.585 -17.295  1.00  0.00     0.007 A 
HETATM   12  C13         0      31.366 -22.393 -16.678  1.00  0.00     0.008 A 
BRANCH  10  13
HETATM   13  C4          0      28.052 -20.798 -17.559  1.00  0.00     0.042 C 
BRANCH  13  14
HETATM   14  C3          0      26.625 -20.997 -17.015  1.00  0.00    -0.019 C 
HETATM   15  C8          0      25.821 -19.695 -17.021  1.00  0.00     0.010 C 
HETATM   16  C9          0      25.895 -22.057 -17.845  1.00  0.00     0.010 C 
ENDBRANCH  13  14
ENDBRANCH  10  13
ENDBRANCH   5   7
ENDBRANCH   3   5
ENDBRANCH   1   3
TORSDOF 5
ENDMDL
MODEL 9
REMARK VINA RESULT:      -6.1      3.054      5.886
REMARK  5 active torsions:
REMARK  status: ('A' for Active; 'I' for Inactive)
REMARK    1  A    between atoms: O1_1  and  C15_15 
REMARK    2  A    between atoms: C3_3  and  C4_4 
REMARK    3  A    between atoms: C4_4  and  C5_5 
REMARK    4  A    between atoms: C6_6  and  C7_7 
REMARK    5  A    between atoms: C7_7  and  C15_15 
ROOT
HETATM    1  O1          0      34.065 -25.681 -11.893  1.00  0.00    -0.776 OA
HETATM    2  H33         0      34.789 -25.253 -12.400  1.00  0.00     0.167 HD
ENDROOT
BRANCH   1   3
HETATM    3  C15         0      32.899 -25.701 -12.593  1.00  0.00     0.148 C 
HETATM    4  O2          0      32.500 -26.700 -13.175  1.00  0.00    -0.649 OA
BRANCH   3   5
HETATM    5  C7          0      32.156 -24.362 -12.560  1.00  0.00     0.112 C 
HETATM    6  C14         0      30.941 -24.509 -11.620  1.00  0.00     0.026 C 
BRANCH   5   7
HETATM    7  C6          0      31.810 -23.859 -13.920  1.00  0.00    -0.044 A 
HETATM    8  C12         0      32.800 -23.748 -14.897  1.00  0.00     0.008 A 
HETATM    9  C10         0      32.477 -23.277 -16.169  1.00  0.00     0.007 A 
HETATM   10  C5          0      31.167 -22.922 -16.449  1.00  0.00    -0.058 A 
HETATM   11  C11         0      30.172 -23.026 -15.490  1.00  0.00     0.007 A 
HETATM   12  C13         0      30.496 -23.497 -14.217  1.00  0.00     0.008 A 
BRANCH  10  13
HETATM   13  C4          0      30.817 -22.413 -17.826  1.00  0.00     0.042 C 
BRANCH  13  14
HETATM   14  C3          0      30.955 -20.886 -17.980  1.00  0.00    -0.019 C 
HETATM   15  C8          0      29.644 -20.158 -17.679  1.00  0.00     0.010 C 
HETATM   16  C9          0      32.057 -20.369 -17.051  1.00  0.00     0.010 C 
ENDBRANCH  13  14
ENDBRANCH  10  13
ENDBRANCH   5   7
ENDBRANCH   3   5
ENDBRANCH   1   3
TORSDOF 5
ENDMDL
